################################################################################
# Symmetry function scaling data.
################################################################################
# Col  Name     Description
################################################################################
# 1    e_index  Element index.
# 2    sf_index Symmetry function index.
# 3    sf_min   Symmetry function minimum.
# 4    sf_max   Symmetry function maximum.
# 5    sf_mean  Symmetry function mean.
# 6    sf_sigma Symmetry function sigma.
#########################################################################################################################
#        1          2                        3                        4                        5                        6
#  e_index   sf_index                   sf_min                   sf_max                  sf_mean                 sf_sigma
#########################################################################################################################
         1          1   0.0000000000000000E+00   3.6733223610865000E+00   8.9141672999620480E-01   1.0551582729680145E+00
         1          2   0.0000000000000000E+00   3.9271051363188680E-01   3.7276558750653312E-02   5.5663299752994506E-02
         1          3   0.0000000000000000E+00   2.7001650564006785E+00   6.0319429618615372E-01   6.9999020520106314E-01
         1          4   0.0000000000000000E+00   2.3885582115318824E-01   2.0277627143753290E-02   3.0978651299342932E-02
         1          5   0.0000000000000000E+00   2.1032115941226968E+00   4.5948490627593480E-01   5.4394386787317062E-01
         1          6   0.0000000000000000E+00   1.9970295293804943E+00   4.5041054693292615E-01   5.5794083726125343E-01
         1          7   0.0000000000000000E+00   7.6636831419933840E-02   5.0788188960306001E-03   8.2589300187654712E-03
         1          8   0.0000000000000000E+00   1.3271093426445857E+00   2.7337620526363782E-01   3.3482571830931190E-01
         1          9   0.0000000000000000E+00   1.0453236571557663E+00   2.1253911780957177E-01   2.7403400336052730E-01
         1         10   0.0000000000000000E+00   1.8116667273300994E+01   4.9135769106104119E+00   5.1707181267642106E+00
         1         11   0.0000000000000000E+00   2.9670326993437790E+00   3.9228809663586478E-01   5.3659234562733160E-01
         1         12   0.0000000000000000E+00   1.2326830212101850E+01   2.8923643608316372E+00   3.1606970036019759E+00
         1         13   0.0000000000000000E+00   2.0497564684391850E+01   5.7773510275474331E+00   5.8090232215017874E+00
         1         14   0.0000000000000000E+00   1.3642508616498588E+01   3.2262434634396588E+00   3.4861896649343724E+00
         1         15   0.0000000000000000E+00   2.4939014035642394E+01   7.0321066205841474E+00   7.0670897313569618E+00
         1         16   0.0000000000000000E+00   4.5586206185482094E+00   6.2334328771921255E-01   8.4219478645372270E-01
         1         17   0.0000000000000000E+00   7.0187942223422199E+00   1.9790922352657538E+00   1.9873880760216447E+00
         1         18   0.0000000000000000E+00   1.2557192050192181E+00   1.7788084691737038E-01   2.4153388125806755E-01
         1         19   0.0000000000000000E+00   4.6868074589144095E+00   1.1077286838755231E+00   1.1909143275617504E+00
         1         20   9.1027876051131933E-03   6.0557832115343714E+01   1.6860606672550634E+01   1.7207833459883936E+01
         1         21   0.0000000000000000E+00   1.0637671257300958E+01   1.4560560246368814E+00   1.9632971576265268E+00
         1         22   0.0000000000000000E+00   4.0569447335335759E+01   9.5780359808765176E+00   1.0376104033392844E+01
         1         23   0.0000000000000000E+00   2.6561690943679011E+01   6.2832581728315500E+00   6.7877217481169874E+00
         1         24   1.3399348351688005E-03   4.8775256333577723E+01   1.3746750180508966E+01   1.3824329538844252E+01
         1         25   0.0000000000000000E+00   8.8774657776442893E+00   1.2209384735635573E+00   1.6541567101452641E+00
         1         26   2.0829895878896169E-02   1.3796603642649435E+01   3.8913103574725838E+00   3.9075813234761330E+00
         1         27   0.0000000000000000E+00   2.4120465563208202E+00   3.4542533336592463E-01   4.6153237676282177E-01
         1         28   0.0000000000000000E+00   9.1886411081802297E+00   2.1688506668489906E+00   2.3476953507358806E+00
         1         29   4.9032646929322585E-03   2.5962263326580040E+01   7.3056578134356416E+00   7.3681648485878251E+00
         1         30   0.0000000000000000E+00   4.6016257655814012E+00   6.5449681390201953E-01   8.8008358680455734E-01
         1         31   0.0000000000000000E+00   1.7289730036464110E+01   4.0872440771122269E+00   4.4127958606286466E+00
         1         32   2.5512877373855945E-07   3.5270787372459196E+01   9.9544063314475402E+00   9.9865119088244665E+00
         1         33   0.0000000000000000E+00   2.3513801339765049E+01   5.5483722524734720E+00   5.9993542601904020E+00
         1         34   0.0000000000000000E+00   8.9283500929424309E-01   1.2096653539990367E-01   1.7341912965581241E-01
         1         35   0.0000000000000000E+00   1.2595350568889582E-03   1.8727175146537304E-05   5.0123227067292487E-05
         1         36   0.0000000000000000E+00   2.8456001288637139E-01   2.3847993131512469E-02   3.7075068304530862E-02
         1         37   0.0000000000000000E+00   3.3257670138677149E+00   4.7693257824101010E-01   6.7492505858689567E-01
         1         38   0.0000000000000000E+00   1.7800108191770529E-02   1.6845927342449031E-03   2.7424698272766434E-03
         1         39   0.0000000000000000E+00   4.3223351567591219E+00   6.2380031052139562E-01   8.7050966041277777E-01
         1         40   0.0000000000000000E+00   4.8540900667449219E-02   1.7886256082487841E-03   3.6756846593761381E-03
         1         41   0.0000000000000000E+00   1.1979299032090834E-02   1.1960822316816405E-03   2.2155961496952920E-03
         1         42   0.0000000000000000E+00   1.7532873777385123E+00   2.0390268038705298E-01   2.8501785551740694E-01
         1         43   0.0000000000000000E+00   8.6467423035275033E+00   1.2534256175171217E+00   1.7671928598764173E+00
         1         44   0.0000000000000000E+00   5.4227843846097065E-02   5.1550671898620100E-03   8.3100153236604687E-03
         1         45   0.0000000000000000E+00   1.1597494669648320E+01   1.7126860730878775E+00   2.3675733272317303E+00
         1         46   0.0000000000000000E+00   1.3739857453384752E-01   5.2414890688216326E-03   1.0437064432676980E-02
         1         47   0.0000000000000000E+00   3.5773617965327943E-02   3.7941950791093508E-03   6.8891546763617728E-03
         1         48   0.0000000000000000E+00   4.0067972669062266E+00   4.4008499526249090E-01   6.2837831489102847E-01
         1         49   0.0000000000000000E+00   7.0046485380897106E-01   9.4377300696630945E-02   1.3702441998615492E-01
         1         50   0.0000000000000000E+00   9.5270840780312538E-01   1.3280404347054409E-01   1.8815063841261251E-01
         1         51   0.0000000000000000E+00   4.0773978621121743E-01   4.5435604261216511E-02   6.4220752039544013E-02
         1         52   0.0000000000000000E+00   4.9935125522562629E+00   7.1276389548918684E-01   1.0110811701230684E+00
         1         53   0.0000000000000000E+00   2.8412817341028088E-02   2.4850916165673185E-03   3.9946461104218038E-03
         1         54   0.0000000000000000E+00   6.9193064857068221E+00   1.0203754239675187E+00   1.4118551553309986E+00
         1         55   0.0000000000000000E+00   6.9357328671808632E-02   2.5471694831803609E-03   5.0142694026671427E-03
         1         56   0.0000000000000000E+00   1.9595328772488131E-02   1.9274390781687432E-03   3.4816547418581897E-03
         1         57   0.0000000000000000E+00   2.2259635163075098E+00   2.3114136030579049E-01   3.3600207463170001E-01
         1         58   0.0000000000000000E+00   1.9289640438896927E+00   2.7209145859164402E-01   3.8348595798648427E-01
         1         59   0.0000000000000000E+00   8.2055536960740061E-01   9.2283285948319846E-02   1.3021263224734828E-01
         1         60   0.0000000000000000E+00   3.7524042385533147E+00   5.2165373301956341E-01   7.4840232475569446E-01
         1         61   0.0000000000000000E+00   1.5690601169240152E-02   1.2727157498166779E-03   2.1542668437809082E-03
         1         62   0.0000000000000000E+00   5.2869734612774799E+00   7.6885110841350646E-01   1.0703191965279957E+00
         1         63   0.0000000000000000E+00   1.1642495432144948E-02   1.0417678636549035E-03   1.9319822063190359E-03
         1         64   0.0000000000000000E+00   9.6828560065580616E-01   9.3856014391166351E-02   1.3966656597150051E-01
         2          1   0.0000000000000000E+00   2.3254631630358832E-01   2.1432786958487944E-02   3.2858677572446031E-02
         2          2   0.0000000000000000E+00   9.1405580182797297E-01   1.8219552876014539E-01   7.6672287331754199E-02
         2          3   0.0000000000000000E+00   4.4941199382057306E-01   2.3929194757756907E-02   3.9429401286008518E-02
         2          4   0.0000000000000000E+00   1.2975382849888226E-01   1.1658964163050635E-02   1.8054719604585299E-02
         2          5   0.0000000000000000E+00   3.9785210758446976E-01   4.9309779722118870E-02   2.4400514156511840E-02
         2          6   0.0000000000000000E+00   4.0340325822650992E-02   2.9201526924064703E-03   4.6820584200300917E-03
         2          7   0.0000000000000000E+00   9.7455023041032388E-02   4.1471614055129356E-03   7.5754623202330907E-03
         2          8   0.0000000000000000E+00   1.4936115325901608E-01   8.7326591218481759E-03   5.7809467535169514E-03
         2          9   0.0000000000000000E+00   1.8609503593758794E+00   2.2555266589355169E-01   3.1891086400877366E-01
         2         10   7.9136993376902279E-03   5.3829367099614611E+00   1.6918042992824369E+00   5.7842918464756832E-01
         2         11   0.0000000000000000E+00   2.6712995405998692E+00   1.9668665915495798E-01   2.7336879038383738E-01
         2         12   7.9991969916885591E-02   6.3931835510341148E+00   2.1958703293158139E+00   7.1205132996568099E-01
         2         13   0.0000000000000000E+00   2.5732383333584536E+00   3.5840174993233070E-01   4.9181877744718522E-01
         2         14   1.7868929598630338E-02   7.7812858996853400E+00   2.6522155401550527E+00   8.6571619302976843E-01
         2         15   0.0000000000000000E+00   3.5793493195999422E+00   2.9965447811929574E-01   3.9296395690695873E-01
         2         16   0.0000000000000000E+00   6.8113354525680603E-01   1.0227559688321942E-01   1.3686122740903167E-01
         2         17   6.8120149953229001E-02   2.1922643836032059E+00   7.4600712542925829E-01   2.4225804587392025E-01
         2         18   0.0000000000000000E+00   1.0318285694362168E+00   8.7702360158956494E-02   1.1517053546734426E-01
         2         19   0.0000000000000000E+00   6.2960186779574192E+00   8.3718400039054364E-01   1.1359538598933958E+00
         2         20   2.0540649781880238E-01   1.8616774919550309E+01   6.2270388970432045E+00   2.0411898975771172E+00
         2         21   0.0000000000000000E+00   8.9166934781626228E+00   7.1931338238793385E-01   9.4069349924280188E-01
         2         22   0.0000000000000000E+00   4.9370901734015593E+00   7.0199919387277554E-01   9.3850675923005322E-01
         2         23   2.4695060482444497E-01   1.5216303445842529E+01   5.2218369211021640E+00   1.6932881935897217E+00
         2         24   0.0000000000000000E+00   7.0602190869738770E+00   6.0498945573721319E-01   7.8472727302573020E-01
         2         25   0.0000000000000000E+00   1.5079223321141335E+00   1.9860812876046202E-01   2.6887276703367646E-01
         2         26   9.3053143587377984E-02   4.3039164516189219E+00   1.4825273163707207E+00   4.7869949428614916E-01
         2         27   0.0000000000000000E+00   2.0211219399174456E+00   1.6972120190672357E-01   2.2082985118608514E-01
         2         28   0.0000000000000000E+00   2.6742600505153167E+00   3.7631399591373293E-01   5.0599079435599992E-01
         2         29   2.7804624744853351E-01   8.0967676951218479E+00   2.7492153407007520E+00   9.0002442702454666E-01
         2         30   0.0000000000000000E+00   3.9679454776928091E+00   3.2032203377698792E-01   4.1715752866304456E-01
         2         31   0.0000000000000000E+00   3.6709998033069540E+00   5.1115833781684072E-01   7.0800730321348659E-01
         2         32   0.0000000000000000E+00   5.0595417522266590E+00   4.2091722767404949E-01   5.5491972395515288E-01
         2         33   0.0000000000000000E+00   5.1845136139831646E-03   7.1717527217706549E-05   1.1836090625683855E-04
         2         34   0.0000000000000000E+00   5.0918389939803963E-04   2.1202576380977178E-05   3.7125142738480467E-05
         2         35   0.0000000000000000E+00   1.5262969677651115E-02   2.1433901441487557E-04   3.4757422182108024E-04
         2         36   0.0000000000000000E+00   9.0870477510420129E-04   3.5109448240830878E-05   6.0430350219474863E-05
         2         37   0.0000000000000000E+00   1.9160299669143271E-03   6.4729566143076390E-06   4.0743187482986580E-05
         2         38   0.0000000000000000E+00   1.9109605570037533E-02   5.5091824984397923E-04   1.4088960285061590E-03
         2         39   0.0000000000000000E+00   1.8330093670031924E-02   2.1118404087366776E-03   2.8194292838856802E-03
         2         40   0.0000000000000000E+00   1.8212315791175625E-02   7.2729700575754961E-04   1.5179221229862420E-03
         2         41   0.0000000000000000E+00   2.2088710698288960E-01   1.4824748785874696E-02   1.0403506833445453E-02
         2         42   0.0000000000000000E+00   2.4729372171584892E-02   2.2246604459396414E-03   3.0560171650017573E-03
         2         43   0.0000000000000000E+00   5.2613753382483260E-02   5.2486819228983494E-04   1.8291057202123855E-03
         2         44   0.0000000000000000E+00   4.8733745404771149E-02   1.4153707389340539E-03   3.6315883887202980E-03
         2         45   0.0000000000000000E+00   5.5620550080186411E-02   5.9723258993858649E-03   7.8106215732410729E-03
         2         46   0.0000000000000000E+00   5.7549669107463827E-02   2.1419472069767239E-03   4.4804763884105656E-03
         2         47   0.0000000000000000E+00   5.9883409178509484E-01   4.2295973311254620E-02   2.8983766123285754E-02
         2         48   0.0000000000000000E+00   9.1079789740381958E-02   6.5975710314923964E-03   8.9690398230501626E-03
         2         49   0.0000000000000000E+00   1.2810639439110075E-01   1.2340821537872102E-03   4.0918217299977218E-03
         2         50   0.0000000000000000E+00   1.5774610926396146E-03   4.1264398020412930E-05   1.1024703274186949E-04
         2         51   0.0000000000000000E+00   1.5272122683438552E-03   5.1399701974852894E-05   1.0726257832603825E-04
         2         52   0.0000000000000000E+00   6.7934054320404474E-03   5.8102331505836596E-05   2.3949774739833211E-04
         2         53   0.0000000000000000E+00   2.1313607128403522E-02   6.1912976255516002E-04   1.5826182090560340E-03
         2         54   0.0000000000000000E+00   2.8412817341028088E-02   2.8146423654947378E-03   3.6581501590533328E-03
         2         55   0.0000000000000000E+00   2.9675834235575425E-02   1.0299670461827244E-03   2.1314265116262523E-03
         2         56   0.0000000000000000E+00   3.2247147497575823E-01   2.0295267696172341E-02   1.4344943479008918E-02
         2         57   0.0000000000000000E+00   5.1206953001871232E-02   3.2649817102917713E-03   4.4701348886282549E-03
         2         58   0.0000000000000000E+00   5.9837973108173542E-02   5.5880453504553315E-04   1.8463089640278552E-03
         2         59   0.0000000000000000E+00   1.7099616999678286E-02   1.4353812168464594E-04   5.4199237782667808E-04
         2         60   0.0000000000000000E+00   1.4035218453246255E-02   3.5091908947964027E-04   9.4595722630746461E-04
         2         61   0.0000000000000000E+00   1.8796736789694696E-02   5.8467236229905485E-04   1.2864733239809736E-03
         2         62   0.0000000000000000E+00   2.9196074889076641E-02   1.8528027814315392E-03   2.6238461430510944E-03
         2         63   0.0000000000000000E+00   1.3295627141382138E-02   1.1866857339540892E-03   1.6142165146145208E-03
         2         64   0.0000000000000000E+00   3.2388699163695606E-02   2.5262961997442378E-04   9.3335407830062939E-04
         3          1   0.0000000000000000E+00   4.0453377422466748E+00   8.1337778667207783E-01   1.1441762737580798E+00
         3          2   0.0000000000000000E+00   4.3668785114682618E-01   5.6120344931603193E-02   7.5412435712966477E-02
         3          3   0.0000000000000000E+00   2.0345497835685202E+02   1.1391106162864044E+00   1.1832960300903931E+01
         3          4   0.0000000000000000E+00   1.5876713092443586E+02   8.5706514746925833E-01   9.2660638116924172E+00
         3          5   0.0000000000000000E+00   1.9773776376457659E+00   3.6863434248643617E-01   5.4418237475770193E-01
         3          6   0.0000000000000000E+00   9.7069788002320259E-02   9.7261997706367936E-03   1.3534599145394989E-02
         3          7   0.0000000000000000E+00   1.0250807262284845E+02   5.1049768826518660E-01   6.0825005700767640E+00
         3          8   0.0000000000000000E+00   7.7880975390142751E+01   3.6489939279919315E-01   4.7106319908741368E+00
         3          9   0.0000000000000000E+00   1.8523452110988448E+01   3.9002108225114847E+00   5.2027536810394333E+00
         3         10   0.0000000000000000E+00   3.0954784728859588E+00   4.6128268280498291E-01   6.0674969247549948E-01
         3         11   0.0000000000000000E+00   7.5493667203179882E+02   4.7558014936551540E+00   4.3736527658480291E+01
         3         12   0.0000000000000000E+00   2.4948314107406528E+01   5.2860277817322645E+00   6.9923399710558769E+00
         3         13   0.0000000000000000E+00   4.6389883621429364E+00   7.0276968542383378E-01   9.2767904418473368E-01
         3         14   0.0000000000000000E+00   1.2230331336934087E+03   8.1591206675713366E+00   7.0742152238909085E+01
         3         15   0.0000000000000000E+00   7.0278740300650711E+00   1.4937175480946248E+00   1.9640238137022517E+00
         3         16   0.0000000000000000E+00   1.2830117267829988E+00   2.0568542958767494E-01   2.7194287661761207E-01
         3         17   0.0000000000000000E+00   3.4488690459631476E+02   2.2707749604156482E+00   1.9899035619955534E+01
         3         18   0.0000000000000000E+00   6.0971574660080947E+01   1.2915509573032567E+01   1.7098062907387273E+01
         3         19   0.0000000000000000E+00   1.0930525623375507E+01   1.6869817619100342E+00   2.2110446358139098E+00
         3         20   1.0312415805346465E-02   2.9910662744253991E+03   1.9603464584583897E+01   1.7315069618009659E+02
         3         21   0.0000000000000000E+00   4.8784224038500859E+01   1.0351379257984176E+01   1.3671917057790905E+01
         3         22   1.6498263766809519E-03   2.3916260426074564E+03   1.5890677865497787E+01   1.3842177075953353E+02
         3         23   0.0000000000000000E+00   1.3805182467927279E+01   2.9245882565166954E+00   3.8690463520217433E+00
         3         24   0.0000000000000000E+00   2.4751718206521804E+00   3.9804149239598208E-01   5.2373869347212176E-01
         3         25   2.3551733310747818E-02   6.7655004450976310E+02   4.5106762101790956E+00   3.9145153401837433E+01
         3         26   0.0000000000000000E+00   2.5971208029621849E+01   5.5114472435331239E+00   7.2741829075904567E+00
         3         27   0.0000000000000000E+00   4.7109231048879820E+00   7.5124061660828823E-01   9.9349805272349556E-01
         3         28   6.0304152931458513E-03   1.2731840866225461E+03   8.4531548318628467E+00   7.3729816255672930E+01
         3         29   0.0000000000000000E+00   3.5297742228328140E+01   7.4817065925253798E+00   9.8863212073910258E+00
         3         30   3.7581667110164378E-07   1.7285696512492991E+03   1.1532546713872483E+01   9.9909842798884796E+01
         3         31   0.0000000000000000E+00   8.3372013285031854E-01   7.9550712470923546E-02   1.3946328817330944E-01
         3         32   0.0000000000000000E+00   1.7324086121146254E-03   3.9704583332879828E-05   8.5966390281746520E-05
         3         33   0.0000000000000000E+00   1.2904324640610637E-03   3.1036032624958283E-05   8.3599994713731533E-05
         3         34   0.0000000000000000E+00   2.3653858731131468E+03   8.3697549211160016E+00   1.3680229308185662E+02
         3         35   0.0000000000000000E+00   8.1565990864914272E+02   2.9717908489007980E+00   4.8571295846625226E+01
         3         36   0.0000000000000000E+00   1.6422777945200096E+03   5.9852272640101489E+00   9.7824314370311669E+01
         3         37   0.0000000000000000E+00   3.9528299456340079E+00   4.7317893716965875E-01   7.7755660090003798E-01
         3         38   0.0000000000000000E+00   1.6922743638582462E-02   1.9126534862312287E-03   3.1245491391128418E-03
         3         39   0.0000000000000000E+00   4.1457934203112634E+00   4.4927161536697480E-01   7.5379601136587859E-01
         3         40   0.0000000000000000E+00   5.6917038963609883E-02   2.8585214889291022E-03   5.0476169228853961E-03
         3         41   0.0000000000000000E+00   3.0141134414698414E-02   2.0159432377207308E-03   3.4736889057743110E-03
         3         42   0.0000000000000000E+00   9.3502446108803667E+00   1.1021394430816238E+00   1.8270248286976638E+00
         3         43   0.0000000000000000E+00   4.0734376285894776E-02   4.8164895769492498E-03   7.8904671920484552E-03
         3         44   0.0000000000000000E+00   1.1349124102563191E+01   1.2874996822922158E+00   2.1309503094189624E+00
         3         45   0.0000000000000000E+00   1.5740764294293497E-01   7.4867216041223884E-03   1.3290884128435194E-02
         3         46   0.0000000000000000E+00   9.1079789740382180E-02   6.2344723018500957E-03   1.0645388638200092E-02
         3         47   0.0000000000000000E+00   2.4552004836179989E+04   8.3503447759968552E+01   1.3647275291447102E+03
         3         48   0.0000000000000000E+00   5.4255050381129049E+03   1.8960973410908480E+01   3.0965051943429143E+02
         3         49   0.0000000000000000E+00   9.2471594381032585E-01   1.0691402678655285E-01   1.7713580116148975E-01
         3         50   0.0000000000000000E+00   2.9575610527170317E-03   1.6914324655550487E-04   2.8501783633468411E-04
         3         51   0.0000000000000000E+00   9.0509974315142616E-01   9.0535205706440636E-02   1.5532762630102762E-01
         3         52   0.0000000000000000E+00   2.9079757763292041E+03   1.0507646367597612E+01   1.7152077493593674E+02
         3         53   0.0000000000000000E+00   5.2933026477524461E+00   6.0480181678595191E-01   1.0124266546047995E+00
         3         54   0.0000000000000000E+00   6.8161583516782844E+00   7.7795676799034497E-01   1.2865492446739928E+00
         3         55   0.0000000000000000E+00   5.1206953001871322E-02   3.2242982861030692E-03   5.5335397941004578E-03
         3         56   0.0000000000000000E+00   1.5106511207230866E+04   5.1978318981574290E+01   8.4914831675831056E+02
         3         57   0.0000000000000000E+00   1.8500682534479618E+00   2.1583250448596977E-01   3.5687271676068677E-01
         3         58   0.0000000000000000E+00   1.8388331883644868E+00   1.8799585547679470E-01   3.2043158607552175E-01
         3         59   0.0000000000000000E+00   4.8104436867829572E+03   1.6595850672522758E+01   2.7123394117186172E+02
         3         60   0.0000000000000000E+00   4.2143895823095310E+00   4.8599737566769380E-01   8.1193097706440953E-01
         3         61   0.0000000000000000E+00   1.2440477881121809E-02   1.3142379321333031E-03   2.2128449814190882E-03
         3         62   0.0000000000000000E+00   5.1149891711776565E+00   5.6331241465240767E-01   9.4250247887921557E-01
         3         63   0.0000000000000000E+00   1.1537191525465234E+04   3.9358485489556436E+01   6.4350829174178523E+02
         3         64   0.0000000000000000E+00   1.5786475941949797E-02   8.6284599781363174E-04   1.5794310618087734E-03
